VARIABLES = "U" , "Y"
 ZONE t="T=          10 "
   1.00000000      -2.8598212294359168E-007
  0.975000024       1.0026541017951811E-007
  0.949999988      -8.2218332679184464E-008
  0.925000012       1.0404549806887496E-007
  0.899999976       3.7773167722951164E-008
  0.875000000      -1.4849137356794460E-007
  0.850000024      -3.3475591485884039E-007
  0.824999988      -3.3475591485884039E-007
  0.800000012      -3.3475591485884039E-007
  0.774999976      -3.3475591485884039E-007
  0.750000000      -3.3475591485884039E-007
  0.725000024      -3.3475591485884039E-007
  0.699999988      -3.3475591485884039E-007
  0.675000012      -3.3475591485884039E-007
  0.649999976      -3.3475591485884039E-007
  0.625000000      -3.3475591485884039E-007
  0.600000024      -3.3475591485884039E-007
  0.574999988      -3.3475591485884039E-007
  0.550000012      -3.3475591485884039E-007
  0.524999976      -3.3475591485884039E-007
  0.500000000      -3.3475591485884039E-007
  0.474999994      -3.3475591485884039E-007
  0.449999988      -3.3475591485884039E-007
  0.425000012      -3.3475591485884039E-007
  0.400000006      -3.3475591485884039E-007
  0.375000000      -3.3475591485884039E-007
  0.349999994      -3.3475591485884039E-007
  0.324999988      -3.3475591485884039E-007
  0.300000012      -3.3475591485884039E-007
  0.275000006      -3.3475591485884039E-007
  0.250000000      -6.9686074809703730E-005
  0.224999994      -3.1215486248287774E-004
  0.200000003      -8.4735702857722986E-004
  0.174999997      -1.2842760321242863E-003
  0.150000006      -3.0509595063537526E-003
  0.125000000      -4.4947197572034508E-004
  0.100000001      -1.3635495187995358E-002
   7.50000030E-02   3.4094673257687981E-002
   5.00000007E-02 -0.14452625250219495     
   2.50000004E-02  0.53140139202030179     
   0.00000000       1.0080680713625123     
 ZONE t="T=          20 "
   1.00000000      -7.7936625563292416E-008
  0.975000024      -4.6554814378288134E-007
  0.949999988      -6.1510966585109157E-007
  0.925000012      -1.5783330551145018E-008
  0.899999976      -2.6058398244349471E-007
  0.875000000       1.3846182288235719E-007
  0.850000024       5.5156200840446033E-007
  0.824999988      -3.9493103004663227E-007
  0.800000012       3.4276940185792980E-007
  0.774999976      -1.7934283348469488E-007
  0.750000000       4.6974736262724144E-007
  0.725000024      -1.4442297680840995E-007
  0.699999988      -1.5944774746102470E-007
  0.675000012       7.2720342485570321E-007
  0.649999976       1.9306645603005675E-008
  0.625000000       3.7887294149521169E-008
  0.600000024       3.7887294149521169E-008
  0.574999988      -3.3464174402334313E-007
  0.550000012      -3.3464174402334313E-007
  0.524999976      -3.3464174402334313E-007
  0.500000000      -2.8858547308496017E-007
  0.474999994       6.8028828536627312E-008
  0.449999988      -2.6211281961463788E-007
  0.425000012      -3.4299725352867251E-006
  0.400000006      -1.0199149091980859E-005
  0.375000000      -2.8782381363295977E-005
  0.349999994      -6.6167498129535564E-005
  0.324999988      -1.3438938555279626E-004
  0.300000012      -2.4766120343190640E-004
  0.275000006      -4.1624385324303651E-004
  0.250000000      -6.5074274473165227E-004
  0.224999994      -9.1407207945351130E-004
  0.200000003      -1.2849741276397925E-003
  0.174999997      -1.3508226629507783E-003
  0.150000006      -2.4601176988242267E-003
  0.125000000       7.1759871886062192E-004
  0.100000001      -1.1695899096540273E-002
   7.50000030E-02   3.5660944628401352E-002
   5.00000007E-02 -0.14235759394231196     
   2.50000004E-02  0.53444958507039619     
   0.00000000       1.0000484542124985     
 ZONE t="T=          30 "
   1.00000000       3.5113724080188329E-007
  0.975000024      -6.0676856008064457E-007
  0.949999988      -2.9798230771424987E-007
  0.925000012      -1.7522377274450440E-007
  0.899999976      -4.7269771376774681E-007
  0.875000000       5.7719732506957507E-007
  0.850000024      -6.9479892881827965E-008
  0.824999988      -3.0662717102629783E-007
  0.800000012      -3.3164587861146309E-007
  0.774999976       2.7917819791567434E-007
  0.750000000       3.7419970201682110E-007
  0.725000024       3.9327675329404382E-008
  0.699999988      -4.1633479295013437E-007
  0.675000012       7.5045073991645956E-007
  0.649999976      -7.0575255551727578E-009
  0.625000000       1.2614664433536748E-007
  0.600000024      -3.7022858261586466E-008
  0.574999988      -9.5864658771189173E-007
  0.550000012      -5.8176652197149934E-007
  0.524999976      -2.1508931523331171E-006
  0.500000000      -6.9739110248043057E-006
  0.474999994      -1.4073300903458460E-005
  0.449999988      -2.7142239091286810E-005
  0.425000012      -4.9837458407423353E-005
  0.400000006      -8.7230534867847146E-005
  0.375000000      -1.4007511181292860E-004
  0.349999994      -2.1740062177924159E-004
  0.324999988      -3.2043930594064955E-004
  0.300000012      -4.4921665947168636E-004
  0.275000006      -5.9971262774295058E-004
  0.250000000      -7.7182504959552817E-004
  0.224999994      -9.2468564864709563E-004
  0.200000003      -1.1348541003304317E-003
  0.174999997      -1.0323187716715508E-003
  0.150000006      -1.9233055310684539E-003
  0.125000000       1.2646645983117170E-003
  0.100000001      -1.0730992805284775E-002
   7.50000030E-02   3.5635084536812557E-002
   5.00000007E-02 -0.14048149089377668     
   2.50000004E-02  0.53414548378856597     
   0.00000000       1.0000003352479727     
 ZONE t="T=          40 "
   1.00000000      -4.5088604969382740E-007
  0.975000024      -4.4102176230846981E-007
  0.949999988      -5.8719799225432586E-007
  0.925000012       3.7983048580049277E-007
  0.899999976      -7.0901215373708759E-007
  0.875000000       3.9626569578774772E-007
  0.850000024       7.2068685819206908E-007
  0.824999988      -5.2897536423310932E-007
  0.800000012       3.7000072692097505E-007
  0.774999976      -3.5909862233279899E-007
  0.750000000       5.0868761711858035E-007
  0.725000024       1.6671712479970839E-008
  0.699999988      -4.9765187867026617E-008
  0.675000012       6.4631007798367438E-007
  0.649999976      -6.6976036735521813E-007
  0.625000000      -1.7783582875030653E-006
  0.600000024      -3.0507807677482684E-006
  0.574999988      -6.1958625122645595E-006
  0.550000012      -1.0869914283556721E-005
  0.524999976      -1.8791852814461695E-005
  0.500000000      -3.1219275493318683E-005
  0.474999994      -5.1980747120535571E-005
  0.449999988      -7.8688687981605051E-005
  0.425000012      -1.1830398390318635E-004
  0.400000006      -1.7005258486286077E-004
  0.375000000      -2.3540017608429000E-004
  0.349999994      -3.1681120100168200E-004
  0.324999988      -4.1079866613998820E-004
  0.300000012      -5.1595047488565656E-004
  0.275000006      -6.2496322556755170E-004
  0.250000000      -7.3552757537004927E-004
  0.224999994      -8.1756717275526978E-004
  0.200000003      -9.4566878327964881E-004
  0.174999997      -7.7825727123713537E-004
  0.150000006      -1.5708761917320347E-003
  0.125000000       1.5272892027040266E-003
  0.100000001      -1.0115584630266974E-002
   7.50000030E-02   3.5266971887468662E-002
   5.00000007E-02 -0.13888940706686276     
   2.50000004E-02  0.53367348474501941     
   0.00000000      0.99999975043005052     
 ZONE t="T=          50 "
   1.00000000      -5.4832556326240359E-007
  0.975000024      -2.6251874848038209E-007
  0.949999988      -1.5208200464080393E-006
  0.925000012       8.8436631919390020E-007
  0.899999976      -9.1733783008731713E-007
  0.875000000      -7.9604656707953036E-008
  0.850000024       1.4355647483858721E-006
  0.824999988      -3.8800622541605370E-007
  0.800000012      -1.8939291556368183E-007
  0.774999976      -1.2454747784023682E-007
  0.750000000       1.0353462310869327E-007
  0.725000024      -1.2576351905337388E-006
  0.699999988      -1.8373159611122310E-006
  0.675000012      -7.5823715370469000E-007
  0.649999976      -4.7348734670964251E-006
  0.625000000      -7.8098259099305318E-006
  0.600000024      -1.1941440482372068E-005
  0.574999988      -1.9709935700043557E-005
  0.550000012      -3.0664802382092162E-005
  0.524999976      -4.4344643040089859E-005
  0.500000000      -6.5905078089452493E-005
  0.474999994      -9.3384877622960943E-005
  0.449999988      -1.2809631384062852E-004
  0.425000012      -1.7441121924727698E-004
  0.400000006      -2.2876863622510522E-004
  0.375000000      -2.9016044402940957E-004
  0.349999994      -3.6226827787968905E-004
  0.324999988      -4.3819805190074623E-004
  0.300000012      -5.1614069437444607E-004
  0.275000006      -5.9231455172345819E-004
  0.250000000      -6.6206140187175704E-004
  0.224999994      -7.0255724435958468E-004
  0.200000003      -7.8665008853269003E-004
  0.174999997      -5.9899181425937314E-004
  0.150000006      -1.3311141249156882E-003
  0.125000000       1.6540167422582413E-003
  0.100000001      -9.6508527982747481E-003
   7.50000030E-02   3.4769453536222579E-002
   5.00000007E-02 -0.13740729560030243     
   2.50000004E-02  0.53314906543114493     
   0.00000000       1.0000008008673633     
 ZONE t="T=          60 "
   1.00000000      -4.2146879362683670E-008
  0.975000024      -1.2844008920534262E-006
  0.949999988       1.8396080074628352E-007
  0.925000012       1.6943577461334175E-006
  0.899999976       9.0791823502061487E-007
  0.875000000       2.4574953031234743E-006
  0.850000024       9.2458301285287219E-007
  0.824999988       3.7838540456428371E-007
  0.800000012       6.4748947016931031E-007
  0.774999976      -3.1285565309505574E-006
  0.750000000      -2.6787222849606015E-007
  0.725000024      -1.9183463400564982E-006
  0.699999988      -8.4199640436191175E-006
  0.675000012      -7.7442051648799503E-006
  0.649999976      -1.5883520985135543E-005
  0.625000000      -2.2925708777549715E-005
  0.600000024      -2.6285213171818576E-005
  0.574999988      -3.9406436684159951E-005
  0.550000012      -5.3127995249696900E-005
  0.524999976      -7.4970204576822817E-005
  0.500000000      -9.6557337085862957E-005
  0.474999994      -1.3160518231809779E-004
  0.449999988      -1.6895420835882634E-004
  0.425000012      -2.1651595063403511E-004
  0.400000006      -2.6293616764969877E-004
  0.375000000      -3.1634618017650296E-004
  0.349999994      -3.7347629871040941E-004
  0.324999988      -4.3196549897881993E-004
  0.300000012      -4.8829737716137283E-004
  0.275000006      -5.4088492406007200E-004
  0.250000000      -5.8577464880485853E-004
  0.224999994      -6.0166131769295004E-004
  0.200000003      -6.6096117095801711E-004
  0.174999997      -4.7133298704004446E-004
  0.150000006      -1.1527877212574871E-003
  0.125000000       1.7093714795544475E-003
  0.100000001      -9.2619333623781813E-003
   7.50000030E-02   3.4215534870673747E-002
   5.00000007E-02 -0.13598220777370923     
   2.50000004E-02  0.53259897166833636     
   0.00000000      0.99999888624070021     
 ZONE t="T=          70 "
   1.00000000       3.7074717650631387E-007
  0.975000024       1.9495330263785330E-006
  0.949999988       1.9092226283722671E-007
  0.925000012       3.0808259795643655E-006
  0.899999976      -3.2496847043949774E-006
  0.875000000       9.0737663477487668E-007
  0.850000024      -4.9675870476845557E-006
  0.824999988      -2.9629856071004850E-006
  0.800000012      -3.9177935998265451E-006
  0.774999976      -7.9115973275941626E-007
  0.750000000      -4.4828831487330936E-006
  0.725000024      -4.5203380924985351E-006
  0.699999988      -9.4186210237678384E-006
  0.675000012      -1.4269764711292499E-005
  0.649999976      -2.0627188049508861E-005
  0.625000000      -3.0563254655246555E-005
  0.600000024      -4.1395251530347832E-005
  0.574999988      -5.7627153285410578E-005
  0.550000012      -7.6759529871598897E-005
  0.524999976      -9.5260607926433077E-005
  0.500000000      -1.2781794784551273E-004
  0.474999994      -1.5971956089983800E-004
  0.449999988      -1.9386830423582746E-004
  0.425000012      -2.3360772625944688E-004
  0.400000006      -2.8069443969246728E-004
  0.375000000      -3.2421737998072426E-004
  0.349999994      -3.6704742167364816E-004
  0.324999988      -4.1163410705227945E-004
  0.300000012      -4.5692709233204363E-004
  0.275000006      -4.9189224621422312E-004
  0.250000000      -5.1844846233633634E-004
  0.224999994      -5.2191643991863059E-004
  0.200000003      -5.6315763125909318E-004
  0.174999997      -3.7567473030556553E-004
  0.150000006      -1.0210920584156913E-003
  0.125000000       1.7244631111501853E-003
  0.100000001      -8.9188086523687531E-003
   7.50000030E-02   3.3628861655107221E-002
   5.00000007E-02 -0.13459063594898479     
   2.50000004E-02  0.53205074466303870     
   0.00000000       1.0000002421240946     
 ZONE t="T=          80 "
   1.00000000      -2.4168974159455307E-007
  0.975000024      -1.6361423081784866E-006
  0.949999988      -1.7288661281041457E-006
  0.925000012       5.6944627433360768E-007
  0.899999976      -2.8157731340627071E-006
  0.875000000       2.5353206338670600E-007
  0.850000024      -1.5542149134410027E-006
  0.824999988      -2.7863503460276308E-006
  0.800000012      -4.0198575208108209E-006
  0.774999976      -4.9352002156096420E-006
  0.750000000      -7.9638856897568326E-006
  0.725000024      -1.3123784777083139E-005
  0.699999988      -1.9238183685105149E-005
  0.675000012      -2.4719457467699489E-005
  0.649999976      -2.8545144875437034E-005
  0.625000000      -4.5905723957090099E-005
  0.600000024      -5.5512976128075139E-005
  0.574999988      -7.5263132213776169E-005
  0.550000012      -9.8310803996873661E-005
  0.524999976      -1.1520952319348032E-004
  0.500000000      -1.4698826851456906E-004
  0.474999994      -1.7702133477700614E-004
  0.449999988      -2.0616403807163769E-004
  0.425000012      -2.4685351133182113E-004
  0.400000006      -2.8305074188779601E-004
  0.375000000      -3.1555547720436589E-004
  0.349999994      -3.4986295176916602E-004
  0.324999988      -3.8782462520216726E-004
  0.300000012      -4.1485555829739513E-004
  0.275000006      -4.3814983608404633E-004
  0.250000000      -4.5931778130583843E-004
  0.224999994      -4.4855113666912019E-004
  0.200000003      -4.8707906728671251E-004
  0.174999997      -3.0569294035096895E-004
  0.150000006      -9.1884176267470171E-004
  0.125000000       1.7119630156896192E-003
  0.100000001      -8.6028720969057986E-003
   7.50000030E-02   3.3030347260501219E-002
   5.00000007E-02 -0.13322214190197973     
   2.50000004E-02  0.53148891648972618     
   0.00000000       1.0000000037269712     
 ZONE t="T=          90 "
   1.00000000      -7.9053396708278589E-007
  0.975000024       1.1063283869831380E-006
  0.949999988      -1.7025425512683706E-006
  0.925000012       5.2435616694743847E-007
  0.899999976      -3.9582924990877567E-006
  0.875000000       6.8730790762167958E-007
  0.850000024      -5.3208111982598249E-006
  0.824999988      -3.4446432231068818E-006
  0.800000012      -4.6433554921927409E-006
  0.774999976      -1.1060179832930791E-005
  0.750000000      -7.6314237641866426E-006
  0.725000024      -1.9679234976414346E-005
  0.699999988      -2.4009317174992654E-005
  0.675000012      -2.9600357322750010E-005
  0.649999976      -4.1057106820088206E-005
  0.625000000      -5.6429910987234370E-005
  0.600000024      -6.8372499539659423E-005
  0.574999988      -8.6708885932581836E-005
  0.550000012      -1.0833408182545990E-004
  0.524999976      -1.3370122586715754E-004
  0.500000000      -1.5571731616956922E-004
  0.474999994      -1.8299622874744042E-004
  0.449999988      -2.1096205720598071E-004
  0.425000012      -2.4466340554402685E-004
  0.400000006      -2.8169364913023911E-004
  0.375000000      -3.0532569554771606E-004
  0.349999994      -3.3577199087806770E-004
  0.324999988      -3.5718895159856848E-004
  0.300000012      -3.8062076708885985E-004
  0.275000006      -3.9569559848062210E-004
  0.250000000      -4.0737792006595533E-004
  0.224999994      -3.9761513087049883E-004
  0.200000003      -4.2506916388795787E-004
  0.174999997      -2.5230468163557802E-004
  0.150000006      -8.2731722786231956E-004
  0.125000000       1.6843151037335047E-003
  0.100000001      -8.3140060716611550E-003
   7.50000030E-02   3.2419731470696926E-002
   5.00000007E-02 -0.13187374461770082     
   2.50000004E-02  0.53093438610065580     
   0.00000000       1.0000007487178184     
 ZONE t="T=         100 "
   1.00000000      -1.0137829396492781E-006
  0.975000024       3.2820782909964687E-006
  0.949999988       2.0418037956303742E-006
  0.925000012       2.1577029182914441E-007
  0.899999976      -5.9883036724564852E-006
  0.875000000      -4.9279910486472363E-006
  0.850000024      -7.0300808524928167E-006
  0.824999988      -1.0576697363228356E-005
  0.800000012      -1.3379720734277225E-005
  0.774999976      -1.4981261049501600E-005
  0.750000000      -2.1696647083878671E-005
  0.725000024      -2.5368057594117201E-005
  0.699999988      -3.2871950140767927E-005
  0.675000012      -3.7610446009387884E-005
  0.649999976      -5.0099978427313984E-005
  0.625000000      -6.8257186354149337E-005
  0.600000024      -8.2816160223512790E-005
  0.574999988      -9.7778447565050408E-005
  0.550000012      -1.1865977136455562E-004
  0.524999976      -1.4071169357012648E-004
  0.500000000      -1.6505132575820165E-004
  0.474999994      -1.9208899795587268E-004
  0.449999988      -2.2136001502137036E-004
  0.425000012      -2.4498837715719672E-004
  0.400000006      -2.7487946813513012E-004
  0.375000000      -2.9649596863409917E-004
  0.349999994      -3.1406460003566235E-004
  0.324999988      -3.3594303258700157E-004
  0.300000012      -3.4862807868487147E-004
  0.275000006      -3.6118480746385827E-004
  0.250000000      -3.6172932345515760E-004
  0.224999994      -3.5066843659029310E-004
  0.200000003      -3.7157497761960604E-004
  0.174999997      -2.1248088634995862E-004
  0.150000006      -7.5913810056279357E-004
  0.125000000       1.6416612702608187E-003
  0.100000001      -8.0284615702239191E-003
   7.50000030E-02   3.1810301135710650E-002
   5.00000007E-02 -0.13053365917808546     
   2.50000004E-02  0.53038000852128286     
   0.00000000      0.99999844669591231     
 ZONE t="T=         110 "
   1.00000000      -4.1006358778065018E-007
  0.975000024      -3.7379329785836491E-006
  0.949999988      -2.1230332767167549E-006
  0.925000012      -4.0315430641447179E-006
  0.899999976      -6.4926496996202308E-006
  0.875000000      -5.6413439118336602E-006
  0.850000024      -6.3685257116753782E-006
  0.824999988      -1.3928445552942756E-005
  0.800000012      -1.0656358522865654E-005
  0.774999976      -2.0526497030172024E-005
  0.750000000      -2.4071652245897612E-005
  0.725000024      -3.3264300502654307E-005
  0.699999988      -4.0517270373213440E-005
  0.675000012      -4.6474048826929908E-005
  0.649999976      -6.1301985757793211E-005
  0.625000000      -7.6778843338847611E-005
  0.600000024      -8.7248889605069354E-005
  0.574999988      -1.0986090746523445E-004
  0.550000012      -1.2651257150106119E-004
  0.524999976      -1.4971954689863912E-004
  0.500000000      -1.6951302204560741E-004
  0.474999994      -1.9031695322512269E-004
  0.449999988      -2.1295409556150108E-004
  0.425000012      -2.3723058567436131E-004
  0.400000006      -2.5989383637035966E-004
  0.375000000      -2.8254518228485045E-004
  0.349999994      -2.9351815200599638E-004
  0.324999988      -3.1070077038036705E-004
  0.300000012      -3.2227270842865680E-004
  0.275000006      -3.2681379861771798E-004
  0.250000000      -3.2406395339923199E-004
  0.224999994      -3.0701008370008465E-004
  0.200000003      -3.2470734377110406E-004
  0.174999997      -1.7911544401671576E-004
  0.150000006      -6.9400420649979970E-004
  0.125000000       1.5952981672859381E-003
  0.100000001      -7.7627880745901661E-003
   7.50000030E-02   3.1199294012786954E-002
   5.00000007E-02 -0.12920861063280653     
   2.50000004E-02  0.52982644249541899     
   0.00000000       1.0000012925615911     
 ZONE t="T=         120 "
   1.00000000       1.5251524086682800E-006
  0.975000024      -3.8342999226828858E-006
  0.949999988      -8.6007834450705933E-006
  0.925000012      -9.5116941813038475E-006
  0.899999976      -1.1780441368977386E-005
  0.875000000      -9.5946166718189814E-006
  0.850000024      -1.6181673760133991E-005
  0.824999988      -1.8098152004113383E-005
  0.800000012      -2.1099402164089867E-005
  0.774999976      -2.9274858747575245E-005
  0.750000000      -2.8478061790225952E-005
  0.725000024      -4.0184177778924937E-005
  0.699999988      -5.0662283324226904E-005
  0.675000012      -5.5134126231165512E-005
  0.649999976      -6.9859168034125334E-005
  0.625000000      -8.6193844773061352E-005
  0.600000024      -9.4592356639537962E-005
  0.574999988      -1.1530560444384767E-004
  0.550000012      -1.2942943626097306E-004
  0.524999976      -1.5193017689355071E-004
  0.500000000      -1.6926971577007098E-004
  0.474999994      -1.9417804628964715E-004
  0.449999988      -2.1053629655240770E-004
  0.425000012      -2.2840735678016189E-004
  0.400000006      -2.5094093253851451E-004
  0.375000000      -2.6137453732145906E-004
  0.349999994      -2.7871793774352080E-004
  0.324999988      -2.8882949368449720E-004
  0.300000012      -2.9534292396702559E-004
  0.275000006      -2.9910993592789057E-004
  0.250000000      -2.9631680444877878E-004
  0.224999994      -2.7691913075140209E-004
  0.200000003      -2.8918804275205457E-004
  0.174999997      -1.5419154465351982E-004
  0.150000006      -6.4091895725448388E-004
  0.125000000       1.5453358258903363E-003
  0.100000001      -7.5050000390872564E-003
   7.50000030E-02   3.0590063894621468E-002
   5.00000007E-02 -0.12789273513149343     
   2.50000004E-02  0.52928005923026389     
   0.00000000       1.0000005810958768     
 ZONE t="T=         130 "
   1.00000000      -1.3147347661214203E-006
  0.975000024      -3.7220539029392898E-006
  0.949999988      -6.3587296023569382E-006
  0.925000012      -5.5788351825668774E-006
  0.899999976      -1.1310128763025253E-005
  0.875000000      -7.9303664617956288E-006
  0.850000024      -1.2766483723296571E-005
  0.824999988      -1.7972168882493974E-005
  0.800000012      -2.0873955121705245E-005
  0.774999976      -3.1786531687427006E-005
  0.750000000      -3.6534275273067754E-005
  0.725000024      -5.0665458917491055E-005
  0.699999988      -5.6052214223179409E-005
  0.675000012      -6.6662928242997461E-005
  0.649999976      -7.7874248478751064E-005
  0.625000000      -9.3259600047357650E-005
  0.600000024      -1.0467328145064181E-004
  0.574999988      -1.2107696236452050E-004
  0.550000012      -1.3858886366117226E-004
  0.524999976      -1.5143583266098178E-004
  0.500000000      -1.7257488411014525E-004
  0.474999994      -1.9354572886018525E-004
  0.449999988      -2.0491238790568874E-004
  0.425000012      -2.2476286223879660E-004
  0.400000006      -2.3531570336496544E-004
  0.375000000      -2.4863914404249895E-004
  0.349999994      -2.5759481230535681E-004
  0.324999988      -2.6554397897266978E-004
  0.300000012      -2.7106307013873747E-004
  0.275000006      -2.7125921202333242E-004
  0.250000000      -2.6850826586919714E-004
  0.224999994      -2.4987327042371723E-004
  0.200000003      -2.6104146995687056E-004
  0.174999997      -1.3337440591740289E-004
  0.150000006      -5.8674130799222840E-004
  0.125000000       1.4869810043505577E-003
  0.100000001      -7.2492167297445566E-003
   7.50000030E-02   2.9980176348453170E-002
   5.00000007E-02 -0.12658671582651496     
   2.50000004E-02  0.52873806297906067     
   0.00000000       1.0000006369735870     
 ZONE t="T=         140 "
   1.00000000       1.4429942618483929E-007
  0.975000024      -4.3173635319101381E-006
  0.949999988      -6.3506876310582900E-006
  0.925000012      -6.9376879709297363E-006
  0.899999976      -1.0309261134796657E-005
  0.875000000      -1.0928953927150251E-005
  0.850000024      -1.5355222913067055E-005
  0.824999988      -1.8971210934369979E-005
  0.800000012      -2.2525441179115337E-005
  0.774999976      -3.0400557169847803E-005
  0.750000000      -4.1228135635590520E-005
  0.725000024      -5.1572915733432666E-005
  0.699999988      -6.1824284716333134E-005
  0.675000012      -6.9376670809715915E-005
  0.649999976      -7.9427329886496914E-005
  0.625000000      -9.5052737173449898E-005
  0.600000024      -1.0493500220669668E-004
  0.574999988      -1.2379930684112454E-004
  0.550000012      -1.3914794866550415E-004
  0.524999976      -1.5400205609460778E-004
  0.500000000      -1.6590453021139722E-004
  0.474999994      -1.8476173786370915E-004
  0.449999988      -1.9987967781366292E-004
  0.425000012      -2.1072522285881759E-004
  0.400000006      -2.2718688385090367E-004
  0.375000000      -2.3252463658487836E-004
  0.349999994      -2.4050118598049208E-004
  0.324999988      -2.4404741083036856E-004
  0.300000012      -2.4754634360620395E-004
  0.275000006      -2.4844445243705815E-004
  0.250000000      -2.4101904181458622E-004
  0.224999994      -2.2511478224014576E-004
  0.200000003      -2.3356178798046513E-004
  0.174999997      -1.2208207458605288E-004
  0.150000006      -5.4466051458369443E-004
  0.125000000       1.4273413712606717E-003
  0.100000001      -7.0090166105739975E-003
   7.50000030E-02   2.9375927435964382E-002
   5.00000007E-02 -0.12529461753151766     
   2.50000004E-02  0.52819478593607616     
   0.00000000       1.0000011137716598     
 ZONE t="T=         150 "
   1.00000000      -2.8585136674913265E-006
  0.975000024      -5.3711972608510404E-006
  0.949999988      -6.8153239752905061E-006
  0.925000012      -9.2850010645981337E-006
  0.899999976      -1.5678948136939062E-005
  0.875000000      -1.2060654611471044E-005
  0.850000024      -2.2000144310802145E-005
  0.824999988      -2.9994158228088446E-005
  0.800000012      -2.9620877780140743E-005
  0.774999976      -3.9211904289615412E-005
  0.750000000      -5.1569550602559735E-005
  0.725000024      -5.8050200256404173E-005
  0.699999988      -6.6413802266811485E-005
  0.675000012      -7.2785482961065958E-005
  0.649999976      -8.9131379776913230E-005
  0.625000000      -9.5962800598944846E-005
  0.600000024      -1.1248216640456576E-004
  0.574999988      -1.2730937354006854E-004
  0.550000012      -1.3656854849363828E-004
  0.524999976      -1.5252854265193909E-004
  0.500000000      -1.6421214233155437E-004
  0.474999994      -1.7889191690697209E-004
  0.449999988      -1.8764865305548177E-004
  0.425000012      -2.0250320038640469E-004
  0.400000006      -2.1074290824152261E-004
  0.375000000      -2.1439616106574925E-004
  0.349999994      -2.2309577121320707E-004
  0.324999988      -2.2630174736551270E-004
  0.300000012      -2.2593625066496831E-004
  0.275000006      -2.2703991211253538E-004
  0.250000000      -2.1896129971695044E-004
  0.224999994      -2.0733612191375700E-004
  0.200000003      -2.1273801141988925E-004
  0.174999997      -1.0801220000564626E-004
  0.150000006      -5.0118922591647615E-004
  0.125000000       1.3694901362759082E-003
  0.100000001      -6.7713897965604834E-003
   7.50000030E-02   2.8780560479947141E-002
   5.00000007E-02 -0.12400571352031202     
   2.50000004E-02  0.52766218161543110     
   0.00000000       1.0000016538863654     
 ZONE t="T=         160 "
   1.00000000       1.0670218725050559E-006
  0.975000024      -3.8439413027710844E-006
  0.949999988      -9.7178544718426490E-006
  0.925000012      -1.2747858875892580E-005
  0.899999976      -2.0636801693511591E-005
  0.875000000      -2.0364805112630868E-005
  0.850000024      -2.2184832857073732E-005
  0.824999988      -3.1726398928829424E-005
  0.800000012      -3.5467462631499019E-005
  0.774999976      -4.2515662838726881E-005
  0.750000000      -5.1928548360377879E-005
  0.725000024      -5.9483996623015885E-005
  0.699999988      -6.8376795848048010E-005
  0.675000012      -7.6246881788775720E-005
  0.649999976      -8.6805236054959156E-005
  0.625000000      -1.0029041853734270E-004
  0.600000024      -1.1196960500492689E-004
  0.574999988      -1.2787482614907286E-004
  0.550000012      -1.4042623082274647E-004
  0.524999976      -1.4716458193321418E-004
  0.500000000      -1.6105124236142244E-004
  0.474999994      -1.7416693193236018E-004
  0.449999988      -1.8151118521404091E-004
  0.425000012      -1.9310844111128004E-004
  0.400000006      -2.0190924854236457E-004
  0.375000000      -2.0215624555790468E-004
  0.349999994      -2.0867826855504198E-004
  0.324999988      -2.0940710527350567E-004
  0.300000012      -2.0883096087226494E-004
  0.275000006      -2.1141835216129627E-004
  0.250000000      -1.9864110787379561E-004
  0.224999994      -1.9183206237898158E-004
  0.200000003      -1.9288356570126863E-004
  0.174999997      -9.8699141579134482E-005
  0.150000006      -4.6638382329087738E-004
  0.125000000       1.3076737199587535E-003
  0.100000001      -6.5411937530473925E-003
   7.50000030E-02   2.8184193036801902E-002
   5.00000007E-02 -0.12272949765193041     
   2.50000004E-02  0.52711438288749146     
   0.00000000       1.0000003091732528     