 VARIABLES = "U/Uo" , "Y/H" 
 ZONE t="T =    0.00000000      " 
   0.00000000       1.00000000    
   2.43902449E-02  0.275376350    
   4.87804897E-02   2.91442517E-02
   7.31707364E-02   1.06678274E-03
   9.75609794E-02   1.28255970E-05
  0.121951222       4.92978707E-08
  0.146341473       5.96589861E-11
  0.170731708       2.25200599E-14
  0.195121959       2.63560754E-18
  0.219512194       9.52422568E-23
  0.243902445       1.05961363E-27
  0.268292695       3.62172638E-33
  0.292682946       3.79688545E-39
  0.317073166       1.40129846E-45
  0.341463417       0.00000000    
  0.365853667       0.00000000    
  0.390243918       0.00000000    
  0.414634138       0.00000000    
  0.439024389       0.00000000    
  0.463414669       0.00000000    
  0.487804890       0.00000000    
  0.512195110       0.00000000    
  0.536585391       0.00000000    
  0.560975671       0.00000000    
  0.585365891       0.00000000    
  0.609756112       0.00000000    
  0.634146333       0.00000000    
  0.658536613       0.00000000    
  0.682926834       0.00000000    
  0.707317054       0.00000000    
  0.731707335       0.00000000    
  0.756097615       0.00000000    
  0.780487835       0.00000000    
  0.804878056       0.00000000    
  0.829268277       0.00000000    
  0.853658557       0.00000000    
  0.878048778       0.00000000    
  0.902438998       0.00000000    
  0.926829338       0.00000000    
  0.951219559       0.00000000    
  0.975609779       0.00000000    
 ZONE t="T =    9.99999978E-03  " 
   0.00000000       1.00000000    
   2.43902449E-02  0.440536678    
   4.87804897E-02  0.122934051    
   7.31707364E-02   2.06753034E-02
   9.75609794E-02   2.03450210E-03
  0.121951222       1.15052055E-04
  0.146341473       3.69706936E-06
  0.170731708       6.70094096E-08
  0.195121959       6.81614265E-10
  0.219512194       3.87724098E-12
  0.243902445       1.23016882E-14
  0.268292695       2.17282728E-17
  0.292682946       2.13335373E-20
  0.317073166       1.16299294E-23
  0.341463417       3.51701232E-27
  0.365853667       5.89558612E-31
  0.390243918       5.47491660E-35
  0.414634138       2.81520021E-39
  0.439024389       7.98740125E-44
  0.463414669       0.00000000    
  0.487804890       0.00000000    
  0.512195110       0.00000000    
  0.536585391       0.00000000    
  0.560975671       0.00000000    
  0.585365891       0.00000000    
  0.609756112       0.00000000    
  0.634146333       0.00000000    
  0.658536613       0.00000000    
  0.682926834       0.00000000    
  0.707317054       0.00000000    
  0.731707335       0.00000000    
  0.756097615       0.00000000    
  0.780487835       0.00000000    
  0.804878056       0.00000000    
  0.829268277       0.00000000    
  0.853658557       0.00000000    
  0.878048778       0.00000000    
  0.902438998       0.00000000    
  0.926829338       0.00000000    
  0.951219559       0.00000000    
  0.975609779       0.00000000    
 ZONE t="T =    1.99999996E-02  " 
   0.00000000       1.00000000    
   2.43902449E-02  0.528855920    
   4.87804897E-02  0.207847327    
   7.31707364E-02   5.88569790E-02
   9.75609794E-02   1.17684100E-02
  0.121951222       1.63960806E-03
  0.146341473       1.57763017E-04
  0.170731708       1.04197788E-05
  0.195121959       4.70354507E-07
  0.219512194       1.44658907E-08
  0.243902445       3.02417619E-10
  0.268292695       4.28985580E-12
  0.292682946       4.12343499E-14
  0.317073166       2.68276748E-16
  0.341463417       1.18043120E-18
  0.365853667       3.51016234E-21
  0.390243918       7.05004439E-24
  0.414634138       9.55937562E-27
  0.439024389       8.74693283E-30
  0.463414669       5.39923253E-33
  0.487804890       2.24764866E-36
  0.512195110       6.30875779E-40
  0.536585391       1.19110369E-43
  0.560975671       0.00000000    
  0.585365891       0.00000000    
  0.609756112       0.00000000    
  0.634146333       0.00000000    
  0.658536613       0.00000000    
  0.682926834       0.00000000    
  0.707317054       0.00000000    
  0.731707335       0.00000000    
  0.756097615       0.00000000    
  0.780487835       0.00000000    
  0.804878056       0.00000000    
  0.829268277       0.00000000    
  0.853658557       0.00000000    
  0.878048778       0.00000000    
  0.902438998       0.00000000    
  0.926829338       0.00000000    
  0.951219559       0.00000000    
  0.975609779       0.00000000    
 ZONE t="T =    2.99999993E-02  " 
   0.00000000       1.00000000    
   2.43902449E-02  0.585490525    
   4.87804897E-02  0.275376350    
   7.31707364E-02  0.101808742    
   9.75609794E-02   2.91442517E-02
  0.121951222       6.39300467E-03
  0.146341473       1.06678274E-03
  0.170731708       1.34714122E-04
  0.195121959       1.28255970E-05
  0.219512194       9.18028263E-07
  0.243902445       4.92978707E-08
  0.268292695       1.98283834E-09
  0.292682946       5.96589861E-11
  0.317073166       1.34139282E-12
  0.341463417       2.25200599E-14
  0.365853667       2.82113005E-16
  0.390243918       2.63560754E-18
  0.414634138       1.83544819E-20
  0.439024389       9.52422568E-23
  0.463414669       3.68130471E-25
  0.487804890       1.05961363E-27
  0.512195110       2.27065899E-30
  0.536585391       3.62172638E-33
  0.560975671       4.29897024E-36
  0.585365891       3.79688545E-39
  0.609756112       2.49431127E-42
  0.634146333       1.40129846E-45
  0.658536613       0.00000000    
  0.682926834       0.00000000    
  0.707317054       0.00000000    
  0.731707335       0.00000000    
  0.756097615       0.00000000    
  0.780487835       0.00000000    
  0.804878056       0.00000000    
  0.829268277       0.00000000    
  0.853658557       0.00000000    
  0.878048778       0.00000000    
  0.902438998       0.00000000    
  0.926829338       0.00000000    
  0.951219559       0.00000000    
  0.975609779       0.00000000    
 ZONE t="T =    3.99999991E-02  " 
   0.00000000       1.00000000    
   2.43902449E-02  0.625688076    
   4.87804897E-02  0.329257876    
   7.31707364E-02  0.143353924    
   9.75609794E-02   5.10309339E-02
  0.121951222       1.47269703E-02
  0.146341473       3.42436507E-03
  0.170731708       6.38677331E-04
  0.195121959       9.52282062E-05
  0.219512194       1.13223541E-05
  0.243902445       1.07140352E-06
  0.268292695       8.05671547E-08
  0.292682946       4.80873696E-09
  0.317073166       2.27592861E-10
  0.341463417       8.53488200E-12
  0.365853667       2.53437570E-13
  0.390243918       5.95590582E-15
  0.414634138       1.10722043E-16
  0.439024389       1.62766862E-18
  0.463414669       1.89147594E-20
  0.487804890       1.73710819E-22
  0.512195110       1.26047726E-24
  0.536585391       7.22484731E-27
  0.560975671       3.27065365E-29
  0.585365891       1.16919394E-31
  0.609756112       3.30007343E-34
  0.634146333       7.35339329E-37
  0.658536613       1.29336906E-39
  0.682926834       1.79506333E-42
  0.707317054       1.40129846E-45
  0.731707335       0.00000000    
  0.756097615       0.00000000    
  0.780487835       0.00000000    
  0.804878056       0.00000000    
  0.829268277       0.00000000    
  0.853658557       0.00000000    
  0.878048778       0.00000000    
  0.902438998       0.00000000    
  0.926829338       0.00000000    
  0.951219559       0.00000000    
  0.975609779       0.00000000    
 ZONE t="T =    4.99999970E-02  " 
   0.00000000       1.00000000    
   2.43902449E-02  0.656100869    
   4.87804897E-02  0.373140663    
   7.31707364E-02  0.181579098    
   9.75609794E-02   7.48778805E-02
  0.121951222       2.59797275E-02
  0.146341473       7.54416594E-03
  0.170731708       1.82626862E-03
  0.195121959       3.67447326E-04
  0.219512194       6.13061129E-05
  0.243902445       8.46671901E-06
  0.268292695       9.66536163E-07
  0.292682946       9.11008939E-08
  0.317073166       7.08329351E-09
  0.341463417       4.53973359E-10
  0.365853667       2.39687142E-11
  0.390243918       1.04196729E-12
  0.414634138       3.72795768E-14
  0.439024389       1.09732197E-15
  0.463414669       2.65649798E-17
  0.487804890       5.28789631E-19
  0.512195110       8.65273088E-21
  0.536585391       1.16365339E-22
  0.560975671       1.28594386E-24
  0.585365891       1.16757061E-26
  0.609756112       8.70850572E-29
  0.634146333       5.33518800E-31
  0.658536613       2.68439416E-33
  0.682926834       1.10918554E-35
  0.707317054       3.76344402E-38
  0.731707335       1.04840947E-40
  0.756097615       2.39622037E-43
  0.780487835       0.00000000    
  0.804878056       0.00000000    
  0.829268277       0.00000000    
  0.853658557       0.00000000    
  0.878048778       0.00000000    
  0.902438998       0.00000000    
  0.926829338       0.00000000    
  0.951219559       0.00000000    
  0.975609779       0.00000000    
 ZONE t="T =    5.99999949E-02  " 
   0.00000000       1.00000000    
   2.43902449E-02  0.680141270    
   4.87804897E-02  0.409632355    
   7.31707364E-02  0.216157198    
   9.75609794E-02   9.91309211E-02
  0.121951222       3.92694771E-02
  0.146341473       1.33751007E-02
  0.170731708       3.90305021E-03
  0.195121959       9.73195594E-04
  0.219512194       2.06904602E-04
  0.243902445       3.74450901E-05
  0.268292695       5.76105094E-06
  0.292682946       7.52713561E-07
  0.317073166       8.34456770E-08
  0.341463417       7.84358445E-09
  0.365853667       6.24751750E-10
  0.390243918       4.21470532E-11
  0.414634138       2.40721310E-12
  0.439024389       1.16356035E-13
  0.463414669       4.75841045E-15
  0.487804890       1.64597891E-16
  0.512195110       4.81470608E-18
  0.536585391       1.19073257E-19
  0.560975671       2.48930837E-21
  0.585365891       4.39849877E-23
  0.609756112       6.56785720E-25
  0.634146333       8.28678582E-27
  0.658536613       8.83367010E-29
  0.682926834       7.95522949E-31
  0.707317054       6.05172814E-33
  0.731707335       3.88853990E-35
  0.756097615       2.11029361E-37
  0.780487835       9.67208430E-40
  0.804878056       3.74426950E-42
  0.829268277       1.26116862E-44
  0.853658557       0.00000000    
  0.878048778       0.00000000    
  0.902438998       0.00000000    
  0.926829338       0.00000000    
  0.951219559       0.00000000    
  0.975609779       0.00000000    
 ZONE t="T =    6.99999928E-02  " 
   0.00000000       1.00000000    
   2.43902449E-02  0.699760616    
   4.87804897E-02  0.440536648    
   7.31707364E-02  0.247300580    
   9.75609794E-02  0.122934014    
  0.121951222       5.38279973E-02
  0.146341473       2.06753034E-02
  0.170731708       6.94426103E-03
  0.195121959       2.03450001E-03
  0.219512194       5.18924557E-04
  0.243902445       1.15052055E-04
  0.268292695       2.21457740E-05
  0.292682946       3.69706936E-06
  0.317073166       5.34856611E-07
  0.341463417       6.70092817E-08
  0.365853667       7.26613125E-09
  0.390243918       6.81611378E-10
  0.414634138       5.52918614E-11
  0.439024389       3.87724098E-12
  0.463414669       2.34959052E-13
  0.487804890       1.23016882E-14
  0.512195110       5.56335210E-16
  0.536585391       2.17282728E-17
  0.560975671       7.32745848E-19
  0.585365891       2.13335373E-20
  0.609756112       5.36151220E-22
  0.634146333       1.16299294E-23
  0.658536613       2.17712051E-25
  0.682926834       3.51698689E-27
  0.707317054       4.90224252E-29
  0.731707335       5.89549302E-31
  0.756097615       6.11682408E-33
  0.780487835       5.47482476E-35
  0.804878056       4.22709058E-37
  0.829268277       2.81520021E-39
  0.853658557       1.61709843E-41
  0.878048778       7.98740125E-44
  0.902438998       0.00000000    
  0.926829338       0.00000000    
  0.951219559       0.00000000    
  0.975609779       0.00000000    
 ZONE t="T =    7.99999908E-02  " 
   0.00000000       1.00000000    
   2.43902449E-02  0.716165483    
   4.87804897E-02  0.467117786    
   7.31707364E-02  0.275376290    
   9.75609794E-02  0.145848408    
  0.121951222       6.90730587E-02
  0.146341473       2.91442387E-02
  0.170731708       1.09240757E-02
  0.195121959       3.62927490E-03
  0.219512194       1.06678274E-03
  0.243902445       2.77029845E-04
  0.268292695       6.34840690E-05
  0.292682946       1.28255770E-05
  0.317073166       2.28256431E-06
  0.341463417       3.57617381E-07
  0.365853667       4.92977783E-08
  0.390243918       5.97654104E-09
  0.414634138       6.36963260E-10
  0.439024389       5.96589861E-11
  0.463414669       4.90915425E-12
  0.487804890       3.54816843E-13
  0.512195110       2.25200599E-14
  0.536585391       1.25491626E-15
  0.560975671       6.13865688E-17
  0.585365891       2.63559203E-18
  0.609756112       9.93057209E-20
  0.634146333       3.28325777E-21
  0.658536613       9.52409820E-23
  0.682926834       2.42380826E-24
  0.707317054       5.41109462E-26
  0.731707335       1.05960563E-27
  0.756097615       1.81992857E-29
  0.780487835       2.74149639E-31
  0.804878056       3.62166724E-33
  0.829268277       4.19572993E-35
  0.853658557       4.26234680E-37
  0.878048778       3.79688545E-39
  0.902438998       2.96570807E-41
  0.926829338       2.03188277E-43
  0.951219559       1.40129846E-45
  0.975609779       0.00000000    
 ZONE t="T =    8.99999887E-02  " 
   0.00000000       1.00000000    
   2.43902449E-02  0.730146885    
   4.87804897E-02  0.490282029    
   7.31707364E-02  0.300766736    
   9.75609794E-02  0.167672664    
  0.121951222       8.45904052E-02
  0.146341473       3.84915918E-02
  0.170731708       1.57563388E-02
  0.195121959       5.79002872E-03
  0.219512194       1.90683641E-03
  0.243902445       5.62038156E-04
  0.268292695       1.48101186E-04
  0.292682946       3.48576650E-05
  0.317073166       7.32249919E-06
  0.341463417       1.37204995E-06
  0.365853667       2.29193105E-07
  0.390243918       3.41161908E-08
  0.414634138       4.52357440E-09
  0.439024389       5.34099875E-10
  0.463414669       5.61385383E-11
  0.487804890       5.25161902E-12
  0.512195110       4.37143567E-13
  0.536585391       3.23720204E-14
  0.560975671       2.13235949E-15
  0.585365891       1.24920790E-16
  0.609756112       6.50779012E-18
  0.634146333       3.01441934E-19
  0.658536613       1.24137216E-20
  0.682926834       4.54454614E-22
  0.707317054       1.47886870E-23
  0.731707335       4.27742964E-25
  0.756097615       1.09956957E-26
  0.780487835       2.51202919E-28
  0.804878056       5.09992644E-30
  0.829268277       9.20033568E-32
  0.853658557       1.47479808E-33
  0.878048778       2.10057540E-35
  0.902438998       2.65825086E-37
  0.926829338       2.98869217E-39
  0.951219559       2.98532625E-41
  0.975609779       2.64845410E-43
 ZONE t="T =    9.99999866E-02  " 
   0.00000000       1.00000000    
   2.43902449E-02  0.742247880    
   4.87804897E-02  0.510694921    
   7.31707364E-02  0.323822081    
   9.75609794E-02  0.188337862    
  0.121951222      0.100095674    
  0.146341473       4.84650321E-02
  0.170731708       2.13269405E-02
  0.195121959       8.51279963E-03
  0.219512194       3.07736895E-03
  0.243902445       1.00622664E-03
  0.268292695       2.97280581E-04
  0.292682946       7.92899518E-05
  0.317073166       1.90782357E-05
  0.341463417       4.13871385E-06
  0.365853667       8.09055621E-07
  0.390243918       1.42459399E-07
  0.414634138       2.25862102E-08
  0.439024389       3.22325411E-09
  0.463414669       4.13929863E-10
  0.487804890       4.78231205E-11
  0.512195110       4.96973383E-12
  0.536585391       4.64444943E-13
  0.560975671       3.90274801E-14
  0.585365891       2.94836689E-15
  0.609756112       2.00220854E-16
  0.634146333       1.22208466E-17
  0.658536613       6.70370485E-19
  0.682926834       3.30455197E-20
  0.707317054       1.46370124E-21
  0.731707335       5.82510796E-23
  0.756097615       2.08275017E-24
  0.780487835       6.69002427E-26
  0.804878056       1.93040157E-27
  0.829268277       5.00350190E-29
  0.853658557       1.16487446E-30
  0.878048778       2.43588496E-32
  0.902438998       4.57491060E-34
  0.926829338       7.71672007E-36
  0.951219559       1.16897831E-37
  0.975609779       1.59009961E-39
 ZONE t="T =   0.109999985      " 
   0.00000000       1.00000000    
   2.43902449E-02  0.752855241    
   4.87804897E-02  0.528855920    
   7.31707364E-02  0.344847739    
   9.75609794E-02  0.207847297    
  0.121951222      0.115398802    
  0.146341473       5.88569567E-02
  0.170731708       2.75147073E-02
  0.195121959       1.17684053E-02
  0.219512194       4.59851045E-03
  0.243902445       1.63960806E-03
  0.268292695       5.32911567E-04
  0.292682946       1.57762814E-04
  0.317073166       4.25098297E-05
  0.341463417       1.04197625E-05
  0.365853667       2.32218486E-06
  0.390243918       4.70353683E-07
  0.414634138       8.65537757E-08
  0.439024389       1.44658907E-08
  0.463414669       2.19525176E-09
  0.487804890       3.02417619E-10
  0.512195110       3.78110529E-11
  0.536585391       4.28985580E-12
  0.560975671       4.41577710E-13
  0.585365891       4.12341365E-14
  0.609756112       3.49245173E-15
  0.634146333       2.68275240E-16
  0.658536613       1.86879043E-17
  0.682926834       1.18042416E-18
  0.707317054       6.76035392E-20
  0.731707335       3.51013972E-21
  0.756097615       1.65224051E-22
  0.780487835       7.04999627E-24
  0.804878056       2.72677636E-25
  0.829268277       9.55930629E-27
  0.853658557       3.03737424E-28
  0.878048778       8.74693283E-30
  0.902438998       2.28281896E-31
  0.926829338       5.39914474E-33
  0.951219559       1.15721782E-34
  0.975609779       2.24701783E-36
 ZONE t="T =   0.119999982      " 
   0.00000000       1.00000000    
   2.43902449E-02  0.762252808    
   4.87804897E-02  0.545147419    
   7.31707364E-02  0.364104778    
   9.75609794E-02  0.226242393    
  0.121951222      0.130376503    
  0.146341473       6.95020109E-02
  0.170731708       3.42033319E-02
  0.195121959       1.55123901E-02
  0.219512194       6.47481065E-03
  0.243902445       2.48437771E-03
  0.268292695       8.75468191E-04
  0.292682946       2.83108355E-04
  0.317073166       8.39589193E-05
  0.341463417       2.28213503E-05
  0.365853667       5.68289261E-06
  0.390243918       1.29590808E-06
  0.414634138       2.70524197E-07
  0.439024389       5.16810275E-08
  0.463414669       9.03308006E-09
  0.487804890       1.44418955E-09
  0.512195110       2.11157355E-10
  0.536585391       2.82294760E-11
  0.560975671       3.45022535E-12
  0.585365891       3.85462034E-13
  0.609756112       3.93592460E-14
  0.634146333       3.67279203E-15
  0.658536613       3.13174683E-16
  0.682926834       2.43994938E-17
  0.707317054       1.73676392E-18
  0.731707335       1.12935770E-19
  0.756097615       6.70850989E-21
  0.780487835       3.63996779E-22
  0.804878056       1.80394929E-23
  0.829268277       8.16546768E-25
  0.853658557       3.37552102E-26
  0.878048778       1.27437378E-27
  0.902438998       4.39364926E-29
  0.926829338       1.38324803E-30
  0.951219559       3.97675851E-32
  0.975609779       1.04340038E-33
 ZONE t="T =   0.129999980      " 
   0.00000000       1.00000000    
   2.43902449E-02  0.770654261    
   4.87804897E-02  0.559867442    
   7.31707364E-02  0.381814688    
   9.75609794E-02  0.243583411    
  0.121951222      0.144951940    
  0.146341473       8.02711248E-02
  0.170731708       4.12871763E-02
  0.195121959       1.96926147E-02
  0.219512194       8.69873445E-03
  0.243902445       3.55469808E-03
  0.268292695       1.34261674E-03
  0.292682946       4.68356651E-04
  0.317073166       1.50799257E-04
  0.341463417       4.47905113E-05
  0.365853667       1.22669953E-05
  0.390243918       3.09658662E-06
  0.414634138       7.20236301E-07
  0.439024389       1.54306477E-07
  0.463414669       3.04438217E-08
  0.487804890       5.52999868E-09
  0.512195110       9.24645527E-10
  0.536585391       1.42288417E-10
  0.560975671       2.01486588E-11
  0.585365891       2.62509806E-12
  0.609756112       3.14637205E-13
  0.634146333       3.46891705E-14
  0.658536613       3.51765964E-15
  0.682926834       3.28058216E-16
  0.707317054       2.81353574E-17
  0.731707335       2.21881625E-18
  0.756097615       1.60890713E-19
  0.780487835       1.07264145E-20
  0.804878056       6.57462174E-22
  0.829268277       3.70468708E-23
  0.853658557       1.91900473E-24
  0.878048778       9.13764765E-26
  0.902438998       3.99944891E-27
  0.926829338       1.60900264E-28
  0.951219559       5.94970466E-30
  0.975609779       2.02029087E-31
 ZONE t="T =   0.139999986      " 
   0.00000000       1.00000000    
   2.43902449E-02  0.778223932    
   4.87804897E-02  0.573252022    
   7.31707364E-02  0.398165077    
   9.75609794E-02  0.259938240    
  0.121951222      0.159080297    
  0.146341473       9.10651311E-02
  0.170731708       4.86735590E-02
  0.195121959       2.42544673E-02
  0.219512194       1.12540899E-02
  0.243902445       4.85737901E-03
  0.268292695       1.94846466E-03
  0.292682946       7.25883641E-04
  0.317073166       2.50991783E-04
  0.341463417       8.05088930E-05
  0.365853667       2.39456422E-05
  0.390243918       6.60148908E-06
  0.414634138       1.68634233E-06
  0.439024389       3.99035684E-07
  0.463414669       8.74444410E-08
  0.487804890       1.77424422E-08
  0.512195110       3.33250316E-09
  0.536585391       5.79329529E-10
  0.560975671       9.31998437E-11
  0.585365891       1.38733790E-11
  0.609756112       1.91061078E-12
  0.634146333       2.43408511E-13
  0.658536613       2.86834968E-14
  0.682926834       3.12626118E-15
  0.707317054       3.15121561E-16
  0.731707335       2.93735475E-17
  0.756097615       2.53183980E-18
  0.780487835       2.01784946E-19
  0.804878056       1.48692775E-20
  0.829268277       1.01301837E-21
  0.853658557       6.38035749E-23
  0.878048778       3.71505760E-24
  0.902438998       1.99965898E-25
  0.926829338       9.94932790E-27
  0.951219559       4.57589255E-28
  0.975609779       1.94251521E-29
 ZONE t="T =   0.149999991      " 
   0.00000000       1.00000000    
   2.43902449E-02  0.785090566    
   4.87804897E-02  0.585490525    
   7.31707364E-02  0.413315117    
   9.75609794E-02  0.275376350    
  0.121951222      0.172738805    
  0.146341473      0.101808742    
  0.170731708       5.62829301E-02
  0.195121959       2.91442517E-02
  0.219512194       1.41190207E-02
  0.243902445       6.39300467E-03
  0.268292695       2.70331395E-03
  0.292682946       1.06678274E-03
  0.317073166       3.92634043E-04
  0.341463417       1.34714122E-04
  0.365853667       4.30688342E-05
  0.390243918       1.28255970E-05
  0.414634138       3.55644897E-06
  0.439024389       9.18028263E-07
  0.463414669       2.20541381E-07
  0.487804890       4.92978707E-08
  0.512195110       1.02514566E-08
  0.536585391       1.98283834E-09
  0.560975671       3.56672858E-10
  0.585365891       5.96589861E-11
  0.609756112       9.27800718E-12
  0.634146333       1.34139282E-12
  0.658536613       1.80276665E-13
  0.682926834       2.25200599E-14
  0.707317054       2.61461156E-15
  0.731707335       2.82113005E-16
  0.756097615       2.82871252E-17
  0.780487835       2.63560754E-18
  0.804878056       2.28177333E-19
  0.829268277       1.83544819E-20
  0.853658557       1.37171426E-21
  0.878048778       9.52422568E-23
  0.902438998       6.14347991E-24
  0.926829338       3.68130471E-25
  0.951219559       2.04919855E-26
  0.975609779       1.05734295E-27
 ZONE t="T =   0.159999996      " 
   0.00000000       1.00000000    
   2.43902449E-02  0.791356623    
   4.87804897E-02  0.596736968    
   7.31707364E-02  0.427400380    
   9.75609794E-02  0.289965481    
  0.121951222      0.185919613    
  0.146341473      0.112445623    
  0.170731708       6.40480295E-02
  0.195121959       3.43112499E-02
  0.219512194       1.72683336E-02
  0.243902445       8.15718714E-03
  0.268292695       3.61379422E-03
  0.292682946       1.50047312E-03
  0.317073166       5.83562418E-04
  0.341463417       2.12485291E-04
  0.365853667       7.24053680E-05
  0.390243918       2.30810565E-05
  0.414634138       6.88093951E-06
  0.439024389       1.91789968E-06
  0.463414669       4.99674229E-07
  0.487804890       1.21658090E-07
  0.512195110       2.76761281E-08
  0.536585391       5.88176086E-09
  0.560975671       1.16756760E-09
  0.585365891       2.16460003E-10
  0.609756112       3.74746449E-11
  0.634146333       6.05783566E-12
  0.658536613       9.14268336E-13
  0.682926834       1.28817543E-13
  0.707317054       1.69426342E-14
  0.731707335       2.07999592E-15
  0.756097615       2.38336940E-16
  0.780487835       2.54883480E-17
  0.804878056       2.54383950E-18
  0.829268277       2.36927973E-19
  0.853658557       2.05917566E-20
  0.878048778       1.66997668E-21
  0.902438998       1.26371895E-22
  0.926829338       8.92249173E-24
  0.951219559       5.87781937E-25
  0.975609779       3.60158052E-26
 ZONE t="T =   0.170000002      " 
   0.00000000       1.00000000    
   2.43902449E-02  0.797104895    
   4.87804897E-02  0.607118130    
   7.31707364E-02  0.440536678    
   9.75609794E-02  0.303769737    
  0.121951222      0.198625043    
  0.146341473      0.122934051    
  0.170731708       7.19127208E-02
  0.195121959       3.97087522E-02
  0.219512194       2.06753146E-02
  0.243902445       1.01417797E-02
  0.268292695       4.68320260E-03
  0.292682946       2.03450210E-03
  0.317073166       8.31037527E-04
  0.341463417       3.19025217E-04
  0.365853667       1.15052055E-04
  0.390243918       3.89651432E-05
  0.414634138       1.23889977E-05
  0.439024389       3.69707527E-06
  0.463414669       1.03523701E-06
  0.487804890       2.71952388E-07
  0.512195110       6.70095375E-08
  0.536585391       1.54845505E-08
  0.560975671       3.35519923E-09
  0.585365891       6.81614265E-10
  0.609756112       1.29810857E-10
  0.634146333       2.31731023E-11
  0.658536613       3.87724098E-12
  0.682926834       6.07977752E-13
  0.707317054       8.93403122E-14
  0.731707335       1.23016882E-14
  0.756097615       1.58714980E-15
  0.780487835       1.91858799E-16
  0.804878056       2.17283985E-17
  0.829268277       2.30534947E-18
  0.853658557       2.29132209E-19
  0.878048778       2.13336714E-20
  0.902438998       1.86058709E-21
  0.926829338       1.51992948E-22
  0.951219559       1.16298024E-23
  0.975609779       8.29967362E-25
 ZONE t="T =   0.180000007      " 
   0.00000000       1.00000000    
   2.43902449E-02  0.802402854    
   4.87804897E-02  0.616739094    
   7.31707364E-02  0.452823669    
   9.75609794E-02  0.316848844    
  0.121951222      0.210864037    
  0.146341473      0.133243933    
  0.170731708       7.98305050E-02
  0.195121959       4.52945307E-02
  0.219512194       2.43129525E-02
  0.243902445       1.23359282E-02
  0.268292695       5.91195980E-03
  0.292682946       2.67452374E-03
  0.317073166       1.14152452E-03
  0.341463417       4.59461211E-04
  0.365853667       1.74327462E-04
  0.390243918       6.23283850E-05
  0.414634138       2.09932368E-05
  0.439024389       6.65936250E-06
  0.463414669       1.98904604E-06
  0.487804890       5.59280807E-07
  0.512195110       1.48015886E-07
  0.536585391       3.68645452E-08
  0.560975671       8.63915250E-09
  0.585365891       1.90476479E-09
  0.609756112       3.95064620E-10
  0.634146333       7.70733963E-11
  0.658536613       1.41420972E-11
  0.682926834       2.44036779E-12
  0.707317054       3.96004030E-13
  0.731707335       6.04246809E-14
  0.756097615       8.66900867E-15
  0.780487835       1.16934847E-15
  0.804878056       1.48290164E-16
  0.829268277       1.76787125E-17
  0.853658557       1.98125969E-18
  0.878048778       2.08722406E-19
  0.902438998       2.06687523E-20
  0.926829338       1.92378078E-21
  0.951219559       1.68296961E-22
  0.975609779       1.37611137E-23
 ZONE t="T =   0.190000013      " 
   0.00000000       1.00000000    
   2.43902449E-02  0.807306409    
   4.87804897E-02  0.625688076    
   7.31707364E-02  0.464347243    
   9.75609794E-02  0.329257935    
  0.121951222      0.222649872    
  0.146341473      0.143353969    
  0.170731708       8.77631381E-02
  0.195121959       5.10309562E-02
  0.219512194       2.81548612E-02
  0.243902445       1.47269778E-02
  0.268292695       7.29809701E-03
  0.292682946       3.42436857E-03
  0.317073166       1.52055523E-03
  0.341463417       6.38677331E-04
  0.365853667       2.53659498E-04
  0.390243918       9.52283444E-05
  0.414634138       3.37830279E-05
  0.439024389       1.13223705E-05
  0.463414669       3.58413195E-06
  0.487804890       1.07140534E-06
  0.512195110       3.02390902E-07
  0.536585391       8.05673039E-08
  0.560975671       2.02612096E-08
  0.585365891       4.80875650E-09
  0.609756112       1.07699316E-09
  0.634146333       2.27592861E-10
  0.658536613       4.53765636E-11
  0.682926834       8.53488200E-12
  0.707317054       1.51433315E-12
  0.731707335       2.53437570E-13
  0.756097615       4.00058032E-14
  0.780487835       5.95593758E-15