 VARIABLES = "time" , "iteration"
 ZONE T="time=   5.00000000     "
   5.00000000              50
 ZONE T="time=   9.79687500     "
   9.79687500             100
 ZONE T="time=   14.8906250     "
   14.8906250             150
 ZONE T="time=   19.9218750     "
   19.9218750             200
 ZONE T="time=   24.7968750     "
   24.7968750             250
 ZONE T="time=   29.6875000     "
   29.6875000             300
 ZONE T="time=   34.6093750     "
   34.6093750             350
 ZONE T="time=   39.5625000     "
   39.5625000             400
 ZONE T="time=   44.5312500     "
   44.5312500             450
 ZONE T="time=   49.5312500     "
   49.5312500             500
 ZONE T="time=   54.5625000     "
   54.5625000             550
 ZONE T="time=   59.6093750     "
   59.6093750             600
 ZONE T="time=   64.6562500     "
   64.6562500             650
 ZONE T="time=   69.7343750     "
   69.7343750             700
 ZONE T="time=   74.8281250     "
   74.8281250             750
 ZONE T="time=   80.3593750     "
   80.3593750             800
 ZONE T="time=   86.0468750     "
   86.0468750             850
 ZONE T="time=   91.4375000     "
   91.4375000             900
 ZONE T="time=   96.8281250     "
   96.8281250             950
 ZONE T="time=   102.343750     "
   102.343750            1000
 ZONE T="time=   107.968750     "
   107.968750            1050
 ZONE T="time=   113.500000     "
   113.500000            1100
 ZONE T="time=   118.859375     "
   118.859375            1150
 ZONE T="time=   124.515625     "
   124.515625            1200
 ZONE T="time=   129.921875     "
   129.921875            1250
 ZONE T="time=   135.187500     "
   135.187500            1300
 ZONE T="time=   140.343750     "
   140.343750            1350
 ZONE T="time=   145.406250     "
   145.406250            1400
 ZONE T="time=   150.750000     "
   150.750000            1450
 ZONE T="time=   155.843750     "
   155.843750            1500
 ZONE T="time=   161.000000     "
   161.000000            1550
 ZONE T="time=   166.109375     "
   166.109375            1600
 ZONE T="time=   171.359375     "
   171.359375            1650
 ZONE T="time=   176.437500     "
   176.437500            1700
 ZONE T="time=   181.531250     "
   181.531250            1750
 ZONE T="time=   186.546875     "
   186.546875            1800
 ZONE T="time=   191.640625     "
   191.640625            1850
 ZONE T="time=   196.671875     "
   196.671875            1900
 ZONE T="time=   201.718750     "
   201.718750            1950
 ZONE T="time=   206.750000     "
   206.750000            2000
 ZONE T="time=   211.875000     "
   211.875000            2050
 ZONE T="time=   216.953125     "
   216.953125            2100
 ZONE T="time=   222.046875     "
   222.046875            2150
 ZONE T="time=   227.140625     "
   227.140625            2200
 ZONE T="time=   232.265625     "
   232.265625            2250
 ZONE T="time=   237.375000     "
   237.375000            2300
 ZONE T="time=   242.406250     "
   242.406250            2350
 ZONE T="time=   247.468750     "
   247.468750            2400
 ZONE T="time=   252.515625     "
   252.515625            2450
 ZONE T="time=   257.625000     "
   257.625000            2500
 ZONE T="time=   262.687500     "
   262.687500            2550
 ZONE T="time=   267.765625     "
   267.765625            2600
 ZONE T="time=   272.890625     "
   272.890625            2650
 ZONE T="time=   277.921875     "
   277.921875            2700
 ZONE T="time=   283.046875     "
   283.046875            2750
 ZONE T="time=   288.140625     "
   288.140625            2800
 ZONE T="time=   293.312500     "
   293.312500            2850
 ZONE T="time=   298.406250     "
   298.406250            2900
 ZONE T="time=   303.515625     "
   303.515625            2950
 ZONE T="time=   308.562500     "
   308.562500            3000
 ZONE T="time=   313.656250     "
   313.656250            3050
 ZONE T="time=   318.703125     "
   318.703125            3100
 ZONE T="time=   323.796875     "
   323.796875            3150
 ZONE T="time=   328.859375     "
   328.859375            3200
 ZONE T="time=   333.937500     "
   333.937500            3250
 ZONE T="time=   339.031250     "
   339.031250            3300
 ZONE T="time=   344.093750     "
   344.093750            3350
 ZONE T="time=   349.140625     "
   349.140625            3400
 ZONE T="time=   354.218750     "
   354.218750            3450
 ZONE T="time=   359.312500     "
   359.312500            3500
 ZONE T="time=   364.421875     "
   364.421875            3550
 ZONE T="time=   369.515625     "
   369.515625            3600
 ZONE T="time=   374.593750     "
   374.593750            3650
 ZONE T="time=   379.640625     "
   379.640625            3700
 ZONE T="time=   384.687500     "
   384.687500            3750
 ZONE T="time=   389.750000     "
   389.750000            3800
 ZONE T="time=   394.843750     "
   394.843750            3850
 ZONE T="time=   399.890625     "
   399.890625            3900
 ZONE T="time=   404.984375     "
   404.984375            3950
 ZONE T="time=   410.031250     "
   410.031250            4000
 ZONE T="time=   415.375000     "
   415.375000            4050
 ZONE T="time=   420.953125     "
   420.953125            4100
 ZONE T="time=   427.781250     "
   427.781250            4150
 ZONE T="time=   434.343750     "
   434.343750            4200
 ZONE T="time=   440.203125     "
   440.203125            4250
 ZONE T="time=   445.343750     "
   445.343750            4300
 ZONE T="time=   450.531250     "
   450.531250            4350
 ZONE T="time=   455.656250     "
   455.656250            4400
 ZONE T="time=   460.750000     "
   460.750000            4450
 ZONE T="time=   465.906250     "
   465.906250            4500
 ZONE T="time=   471.015625     "
   471.015625            4550
 ZONE T="time=   476.093750     "
   476.093750            4600
 ZONE T="time=   481.187500     "
   481.187500            4650
 ZONE T="time=   486.296875     "
   486.296875            4700
 ZONE T="time=   491.406250     "
   491.406250            4750
 ZONE T="time=   496.562500     "
   496.562500            4800
 ZONE T="time=   501.656250     "
   501.656250            4850
 ZONE T="time=   506.734375     "
   506.734375            4900
 ZONE T="time=   511.828125     "
   511.828125            4950
 ZONE T="time=   516.921875     "
   516.921875            5000
 ZONE T="time=   522.031250     "
   522.031250            5050
 ZONE T="time=   527.171875     "
   527.171875            5100
 ZONE T="time=   532.250000     "
   532.250000            5150
 ZONE T="time=   537.328125     "
   537.328125            5200
 ZONE T="time=   542.500000     "
   542.500000            5250
 ZONE T="time=   547.593750     "
   547.593750            5300
 ZONE T="time=   552.671875     "
   552.671875            5350
 ZONE T="time=   557.734375     "
   557.734375            5400
 ZONE T="time=   562.828125     "
   562.828125            5450
 ZONE T="time=   567.906250     "
   567.906250            5500
 ZONE T="time=   573.015625     "
   573.015625            5550
 ZONE T="time=   578.187500     "
   578.187500            5600
 ZONE T="time=   583.250000     "
   583.250000            5650
 ZONE T="time=   588.375000     "
   588.375000            5700
 ZONE T="time=   593.453125     "
   593.453125            5750
 ZONE T="time=   598.562500     "
   598.562500            5800
 ZONE T="time=   603.609375     "
   603.609375            5850
 ZONE T="time=   608.687500     "
   608.687500            5900
 ZONE T="time=   613.750000     "
   613.750000            5950
 ZONE T="time=   618.828125     "
   618.828125            6000
 ZONE T="time=   623.921875     "
   623.921875            6050
 ZONE T="time=   628.937500     "
   628.937500            6100
 ZONE T="time=   634.031250     "
   634.031250            6150
 ZONE T="time=   639.125000     "
   639.125000            6200
 ZONE T="time=   644.171875     "
   644.171875            6250
 ZONE T="time=   649.234375     "
   649.234375            6300
 ZONE T="time=   654.250000     "
   654.250000            6350
 ZONE T="time=   659.328125     "
   659.328125            6400
 ZONE T="time=   664.468750     "
   664.468750            6450
 ZONE T="time=   669.531250     "
   669.531250            6500
 ZONE T="time=   674.625000     "
   674.625000            6550
 ZONE T="time=   679.703125     "
   679.703125            6600
 ZONE T="time=   685.390625     "
   685.390625            6650
 ZONE T="time=   691.234375     "
   691.234375            6700
 ZONE T="time=   697.890625     "
   697.890625            6750
 ZONE T="time=   704.500000     "
   704.500000            6800
 ZONE T="time=   711.046875     "
   711.046875            6850
 ZONE T="time=   717.500000     "
   717.500000            6900
 ZONE T="time=   723.859375     "
   723.859375            6950
 ZONE T="time=   730.281250     "
   730.281250            7000
 ZONE T="time=   736.671875     "
   736.671875            7050
 ZONE T="time=   743.156250     "
   743.156250            7100
 ZONE T="time=   749.609375     "
   749.609375            7150
 ZONE T="time=   756.062500     "
   756.062500            7200
 ZONE T="time=   762.468750     "
   762.468750            7250
 ZONE T="time=   768.921875     "
   768.921875            7300
 ZONE T="time=   775.312500     "
   775.312500            7350
 ZONE T="time=   781.718750     "
   781.718750            7400
 ZONE T="time=   788.093750     "
   788.093750            7450
 ZONE T="time=   794.500000     "
   794.500000            7500
 ZONE T="time=   801.500000     "
   801.500000            7550
 ZONE T="time=   807.875000     "
   807.875000            7600
 ZONE T="time=   814.234375     "
   814.234375            7650
 ZONE T="time=   819.531250     "
   819.531250            7700
 ZONE T="time=   824.984375     "
   824.984375            7750
 ZONE T="time=   831.484375     "
   831.484375            7800
 ZONE T="time=   837.984375     "
   837.984375            7850
 ZONE T="time=   843.468750     "
   843.468750            7900
 ZONE T="time=   848.718750     "
   848.718750            7950
 ZONE T="time=   853.875000     "
   853.875000            8000
 ZONE T="time=   859.093750     "
   859.093750            8050
 ZONE T="time=   864.281250     "
   864.281250            8100
 ZONE T="time=   869.390625     "
   869.390625            8150
 ZONE T="time=   874.546875     "
   874.546875            8200
 ZONE T="time=   879.703125     "
   879.703125            8250
 ZONE T="time=   884.859375     "
   884.859375            8300
 ZONE T="time=   890.015625     "
   890.015625            8350
 ZONE T="time=   895.156250     "
   895.156250            8400
 ZONE T="time=   900.218750     "
   900.218750            8450
 ZONE T="time=   905.312500     "
   905.312500            8500
 ZONE T="time=   910.484375     "
   910.484375            8550
 ZONE T="time=   915.625000     "
   915.625000            8600
 ZONE T="time=   920.765625     "
   920.765625            8650
 ZONE T="time=   925.890625     "
   925.890625            8700
 ZONE T="time=   931.015625     "
   931.015625            8750
 ZONE T="time=   936.187500     "
   936.187500            8800
 ZONE T="time=   941.281250     "
   941.281250            8850
 ZONE T="time=   946.343750     "
   946.343750            8900
 ZONE T="time=   951.468750     "
   951.468750            8950
 ZONE T="time=   956.656250     "
   956.656250            9000
 ZONE T="time=   961.734375     "
   961.734375            9050
 ZONE T="time=   966.843750     "
   966.843750            9100
 ZONE T="time=   971.937500     "
   971.937500            9150
 ZONE T="time=   977.015625     "
   977.015625            9200
 ZONE T="time=   982.156250     "
   982.156250            9250
 ZONE T="time=   987.296875     "
   987.296875            9300
 ZONE T="time=   992.390625     "
   992.390625            9350
 ZONE T="time=   997.437500     "
   997.437500            9400
 ZONE T="time=   1002.54688     "
   1002.54688            9450
 ZONE T="time=   1007.67188     "
   1007.67188            9500
 ZONE T="time=   1012.76562     "
   1012.76562            9550
 ZONE T="time=   1017.87500     "
   1017.87500            9600
 ZONE T="time=   1022.96875     "
   1022.96875            9650
 ZONE T="time=   1028.09375     "
   1028.09375            9700
 ZONE T="time=   1033.18750     "
   1033.18750            9750
 ZONE T="time=   1038.28125     "
   1038.28125            9800
 ZONE T="time=   1043.42188     "
   1043.42188            9850
 ZONE T="time=   1048.53125     "
   1048.53125            9900
 ZONE T="time=   1053.67188     "
   1053.67188            9950
 ZONE T="time=   1058.78125     "
   1058.78125           10000
 ZONE T="time=   1063.90625     "
   1063.90625           10050
 ZONE T="time=   1068.98438     "
   1068.98438           10100
 ZONE T="time=   1074.06250     "
   1074.06250           10150
 ZONE T="time=   1079.18750     "
   1079.18750           10200
 ZONE T="time=   1084.20312     "
   1084.20312           10250
 ZONE T="time=   1089.31250     "
   1089.31250           10300
 ZONE T="time=   1094.39062     "
   1094.39062           10350
 ZONE T="time=   1099.48438     "
   1099.48438           10400
 ZONE T="time=   1104.57812     "
   1104.57812           10450
 ZONE T="time=   1109.62500     "
   1109.62500           10500
 ZONE T="time=   1114.78125     "
   1114.78125           10550
 ZONE T="time=   1119.90625     "
   1119.90625           10600
 ZONE T="time=   1125.03125     "
   1125.03125           10650
 ZONE T="time=   1130.10938     "
   1130.10938           10700
 ZONE T="time=   1135.23438     "
   1135.23438           10750
 ZONE T="time=   1140.37500     "
   1140.37500           10800
 ZONE T="time=   1145.43750     "
   1145.43750           10850
 ZONE T="time=   1150.54688     "
   1150.54688           10900
 ZONE T="time=   1155.65625     "
   1155.65625           10950
 ZONE T="time=   1160.70312     "
   1160.70312           11000
 ZONE T="time=   1165.81250     "
   1165.81250           11050
 ZONE T="time=   1170.89062     "
   1170.89062           11100
 ZONE T="time=   1176.00000     "
   1176.00000           11150
 ZONE T="time=   1181.06250     "
   1181.06250           11200
 ZONE T="time=   1186.15625     "
   1186.15625           11250
 ZONE T="time=   1191.26562     "
   1191.26562           11300
 ZONE T="time=   1196.34375     "
   1196.34375           11350
 ZONE T="time=   1201.48438     "
   1201.48438           11400
 ZONE T="time=   1206.53125     "
   1206.53125           11450
 ZONE T="time=   1211.62500     "
   1211.62500           11500
 ZONE T="time=   1216.70312     "
   1216.70312           11550
 ZONE T="time=   1221.76562     "
   1221.76562           11600
 ZONE T="time=   1226.87500     "
   1226.87500           11650
 ZONE T="time=   1232.00000     "
   1232.00000           11700
 ZONE T="time=   1237.06250     "
   1237.06250           11750
 ZONE T="time=   1242.17188     "
   1242.17188           11800
 ZONE T="time=   1247.28125     "
   1247.28125           11850
 ZONE T="time=   1252.42188     "
   1252.42188           11900
 ZONE T="time=   1257.50000     "
   1257.50000           11950
 ZONE T="time=   1262.59375     "
   1262.59375           12000
 ZONE T="time=   1267.81250     "
   1267.81250           12050
 ZONE T="time=   1272.89062     "
   1272.89062           12100
 ZONE T="time=   1278.03125     "
   1278.03125           12150
 ZONE T="time=   1283.10938     "
   1283.10938           12200
 ZONE T="time=   1288.20312     "
   1288.20312           12250
 ZONE T="time=   1293.25000     "
   1293.25000           12300
 ZONE T="time=   1298.39062     "
   1298.39062           12350
 ZONE T="time=   1303.50000     "
   1303.50000           12400
 ZONE T="time=   1308.54688     "
   1308.54688           12450
 ZONE T="time=   1313.62500     "
   1313.62500           12500
 ZONE T="time=   1318.75000     "
   1318.75000           12550
 ZONE T="time=   1323.84375     "
   1323.84375           12600
 ZONE T="time=   1329.04688     "
   1329.04688           12650
 ZONE T="time=   1334.14062     "
   1334.14062           12700
 ZONE T="time=   1339.28125     "
   1339.28125           12750
 ZONE T="time=   1344.46875     "
   1344.46875           12800
 ZONE T="time=   1349.54688     "
   1349.54688           12850
 ZONE T="time=   1354.59375     "
   1354.59375           12900
 ZONE T="time=   1359.67188     "
   1359.67188           12950
 ZONE T="time=   1364.75000     "
   1364.75000           13000
 ZONE T="time=   1369.84375     "
   1369.84375           13050
 ZONE T="time=   1374.90625     "
   1374.90625           13100
 ZONE T="time=   1379.98438     "
   1379.98438           13150
 ZONE T="time=   1385.06250     "
   1385.06250           13200
 ZONE T="time=   1390.17188     "
   1390.17188           13250
 ZONE T="time=   1395.32812     "
   1395.32812           13300
 ZONE T="time=   1400.45312     "
   1400.45312           13350
 ZONE T="time=   1405.54688     "
   1405.54688           13400
 ZONE T="time=   1410.64062     "
   1410.64062           13450
 ZONE T="time=   1415.71875     "
   1415.71875           13500
 ZONE T="time=   1420.79688     "
   1420.79688           13550
 ZONE T="time=   1425.89062     "
   1425.89062           13600
 ZONE T="time=   1430.96875     "
   1430.96875           13650
 ZONE T="time=   1436.03125     "
   1436.03125           13700
 ZONE T="time=   1441.07812     "
   1441.07812           13750
 ZONE T="time=   1446.10938     "
   1446.10938           13800
 ZONE T="time=   1451.12500     "
   1451.12500           13850
 ZONE T="time=   1456.20312     "
   1456.20312           13900
 ZONE T="time=   1461.28125     "
   1461.28125           13950
 ZONE T="time=   1466.35938     "
   1466.35938           14000
 ZONE T="time=   1471.46875     "
   1471.46875           14050
 ZONE T="time=   1476.53125     "
   1476.53125           14100
 ZONE T="time=   1481.64062     "
   1481.64062           14150
 ZONE T="time=   1486.73438     "
   1486.73438           14200
 ZONE T="time=   1491.82812     "
   1491.82812           14250
 ZONE T="time=   1496.95312     "
   1496.95312           14300
 ZONE T="time=   1502.07812     "
   1502.07812           14350
 ZONE T="time=   1507.10938     "
   1507.10938           14400
 ZONE T="time=   1512.20312     "
   1512.20312           14450
 ZONE T="time=   1517.26562     "
   1517.26562           14500
 ZONE T="time=   1522.37500     "
   1522.37500           14550
 ZONE T="time=   1527.43750     "
   1527.43750           14600
 ZONE T="time=   1532.54688     "
   1532.54688           14650
 ZONE T="time=   1537.64062     "
   1537.64062           14700
 ZONE T="time=   1542.59375     "
   1542.59375           14750
 ZONE T="time=   1547.70312     "
   1547.70312           14800
 ZONE T="time=   1552.76562     "
   1552.76562           14850
 ZONE T="time=   1557.82812     "
   1557.82812           14900
 ZONE T="time=   1562.95312     "
   1562.95312           14950
 ZONE T="time=   1568.14062     "
   1568.14062           15000
